+ 1 1 4 tcp 40 ------- 1 1.0 0.0 0 0
- 1 1 4 tcp 40 ------- 1 1.0 0.0 0 0
r 1.01016 1 4 tcp 40 ------- 1 1.0 0.0 0 0
+ 1.01016 4 0 tcp 40 ------- 1 1.0 0.0 0 0
- 1.01016 4 0 tcp 40 ------- 1 1.0 0.0 0 0
r 1.02032 4 0 tcp 40 ------- 1 1.0 0.0 0 0
+ 1.02032 0 4 ack 40 ------- 1 0.0 1.0 0 1
- 1.02032 0 4 ack 40 ------- 1 0.0 1.0 0 1
r 1.03048 0 4 ack 40 ------- 1 0.0 1.0 0 1
+ 1.03048 4 1 ack 40 ------- 1 0.0 1.0 0 1
- 1.03048 4 1 ack 40 ------- 1 0.0 1.0 0 1
r 1.04064 4 1 ack 40 ------- 1 0.0 1.0 0 1
+ 1.04064 1 4 tcp 1040 ------- 1 1.0 0.0 1 2
- 1.04064 1 4 tcp 1040 ------- 1 1.0 0.0 1 2
+ 1.04064 1 4 tcp 1040 ------- 1 1.0 0.0 2 3
- 1.0448 1 4 tcp 1040 ------- 1 1.0 0.0 2 3
r 1.0548 1 4 tcp 1040 ------- 1 1.0 0.0 1 2
+ 1.0548 4 0 tcp 1040 ------- 1 1.0 0.0 1 2
- 1.0548 4 0 tcp 1040 ------- 1 1.0 0.0 1 2
r 1.05896 1 4 tcp 1040 ------- 1 1.0 0.0 2 3
+ 1.05896 4 0 tcp 1040 ------- 1 1.0 0.0 2 3
- 1.05896 4 0 tcp 1040 ------- 1 1.0 0.0 2 3
r 1.06896 4 0 tcp 1040 ------- 1 1.0 0.0 1 2
+ 1.06896 0 4 ack 40 ------- 1 0.0 1.0 1 4
- 1.06896 0 4 ack 40 ------- 1 0.0 1.0 1 4
r 1.07312 4 0 tcp 1040 ------- 1 1.0 0.0 2 3
+ 1.07312 0 4 ack 40 ------- 1 0.0 1.0 2 5
- 1.07312 0 4 ack 40 ------- 1 0.0 1.0 2 5
r 1.07912 0 4 ack 40 ------- 1 0.0 1.0 1 4
+ 1.07912 4 1 ack 40 ------- 1 0.0 1.0 1 4
- 1.07912 4 1 ack 40 ------- 1 0.0 1.0 1 4
r 1.08328 0 4 ack 40 ------- 1 0.0 1.0 2 5
+ 1.08328 4 1 ack 40 ------- 1 0.0 1.0 2 5
- 1.08328 4 1 ack 40 ------- 1 0.0 1.0 2 5
r 1.08928 4 1 ack 40 ------- 1 0.0 1.0 1 4
+ 1.08928 1 4 tcp 1040 ------- 1 1.0 0.0 3 6
- 1.08928 1 4 tcp 1040 ------- 1 1.0 0.0 3 6
+ 1.08928 1 4 tcp 1040 ------- 1 1.0 0.0 4 7
r 1.09344 4 1 ack 40 ------- 1 0.0 1.0 2 5
+ 1.09344 1 4 tcp 1040 ------- 1 1.0 0.0 5 8
+ 1.09344 1 4 tcp 1040 ------- 1 1.0 0.0 6 9
- 1.09344 1 4 tcp 1040 ------- 1 1.0 0.0 4 7
- 1.0976 1 4 tcp 1040 ------- 1 1.0 0.0 5 8
- 1.10176 1 4 tcp 1040 ------- 1 1.0 0.0 6 9
r 1.10344 1 4 tcp 1040 ------- 1 1.0 0.0 3 6
+ 1.10344 4 0 tcp 1040 ------- 1 1.0 0.0 3 6
- 1.10344 4 0 tcp 1040 ------- 1 1.0 0.0 3 6
r 1.1076 1 4 tcp 1040 ------- 1 1.0 0.0 4 7
+ 1.1076 4 0 tcp 1040 ------- 1 1.0 0.0 4 7
- 1.1076 4 0 tcp 1040 ------- 1 1.0 0.0 4 7
r 1.11176 1 4 tcp 1040 ------- 1 1.0 0.0 5 8
+ 1.11176 4 0 tcp 1040 ------- 1 1.0 0.0 5 8
- 1.11176 4 0 tcp 1040 ------- 1 1.0 0.0 5 8
r 1.11592 1 4 tcp 1040 ------- 1 1.0 0.0 6 9
+ 1.11592 4 0 tcp 1040 ------- 1 1.0 0.0 6 9
- 1.11592 4 0 tcp 1040 ------- 1 1.0 0.0 6 9
r 1.1176 4 0 tcp 1040 ------- 1 1.0 0.0 3 6
+ 1.1176 0 4 ack 40 ------- 1 0.0 1.0 3 10
- 1.1176 0 4 ack 40 ------- 1 0.0 1.0 3 10
r 1.12176 4 0 tcp 1040 ------- 1 1.0 0.0 4 7
+ 1.12176 0 4 ack 40 ------- 1 0.0 1.0 4 11
- 1.12176 0 4 ack 40 ------- 1 0.0 1.0 4 11
r 1.12592 4 0 tcp 1040 ------- 1 1.0 0.0 5 8
+ 1.12592 0 4 ack 40 ------- 1 0.0 1.0 5 12
- 1.12592 0 4 ack 40 ------- 1 0.0 1.0 5 12
r 1.12776 0 4 ack 40 ------- 1 0.0 1.0 3 10
+ 1.12776 4 1 ack 40 ------- 1 0.0 1.0 3 10
- 1.12776 4 1 ack 40 ------- 1 0.0 1.0 3 10
r 1.13008 4 0 tcp 1040 ------- 1 1.0 0.0 6 9
+ 1.13008 0 4 ack 40 ------- 1 0.0 1.0 6 13
- 1.13008 0 4 ack 40 ------- 1 0.0 1.0 6 13
r 1.13192 0 4 ack 40 ------- 1 0.0 1.0 4 11
+ 1.13192 4 1 ack 40 ------- 1 0.0 1.0 4 11
- 1.13192 4 1 ack 40 ------- 1 0.0 1.0 4 11
r 1.13608 0 4 ack 40 ------- 1 0.0 1.0 5 12
+ 1.13608 4 1 ack 40 ------- 1 0.0 1.0 5 12
- 1.13608 4 1 ack 40 ------- 1 0.0 1.0 5 12
r 1.13792 4 1 ack 40 ------- 1 0.0 1.0 3 10
+ 1.13792 1 4 tcp 1040 ------- 1 1.0 0.0 7 14
- 1.13792 1 4 tcp 1040 ------- 1 1.0 0.0 7 14
+ 1.13792 1 4 tcp 1040 ------- 1 1.0 0.0 8 15
r 1.14024 0 4 ack 40 ------- 1 0.0 1.0 6 13
+ 1.14024 4 1 ack 40 ------- 1 0.0 1.0 6 13
- 1.14024 4 1 ack 40 ------- 1 0.0 1.0 6 13
r 1.14208 4 1 ack 40 ------- 1 0.0 1.0 4 11
+ 1.14208 1 4 tcp 1040 ------- 1 1.0 0.0 9 16
+ 1.14208 1 4 tcp 1040 ------- 1 1.0 0.0 10 17
- 1.14208 1 4 tcp 1040 ------- 1 1.0 0.0 8 15
r 1.14624 4 1 ack 40 ------- 1 0.0 1.0 5 12
+ 1.14624 1 4 tcp 1040 ------- 1 1.0 0.0 11 18
+ 1.14624 1 4 tcp 1040 ------- 1 1.0 0.0 12 19
- 1.14624 1 4 tcp 1040 ------- 1 1.0 0.0 9 16
r 1.1504 4 1 ack 40 ------- 1 0.0 1.0 6 13
+ 1.1504 1 4 tcp 1040 ------- 1 1.0 0.0 13 20
+ 1.1504 1 4 tcp 1040 ------- 1 1.0 0.0 14 21
- 1.1504 1 4 tcp 1040 ------- 1 1.0 0.0 10 17
r 1.15208 1 4 tcp 1040 ------- 1 1.0 0.0 7 14
+ 1.15208 4 0 tcp 1040 ------- 1 1.0 0.0 7 14
- 1.15208 4 0 tcp 1040 ------- 1 1.0 0.0 7 14
- 1.15456 1 4 tcp 1040 ------- 1 1.0 0.0 11 18
r 1.15624 1 4 tcp 1040 ------- 1 1.0 0.0 8 15
+ 1.15624 4 0 tcp 1040 ------- 1 1.0 0.0 8 15
- 1.15624 4 0 tcp 1040 ------- 1 1.0 0.0 8 15
- 1.15872 1 4 tcp 1040 ------- 1 1.0 0.0 12 19
r 1.1604 1 4 tcp 1040 ------- 1 1.0 0.0 9 16
+ 1.1604 4 0 tcp 1040 ------- 1 1.0 0.0 9 16
- 1.1604 4 0 tcp 1040 ------- 1 1.0 0.0 9 16
- 1.16288 1 4 tcp 1040 ------- 1 1.0 0.0 13 20
r 1.16456 1 4 tcp 1040 ------- 1 1.0 0.0 10 17
+ 1.16456 4 0 tcp 1040 ------- 1 1.0 0.0 10 17
- 1.16456 4 0 tcp 1040 ------- 1 1.0 0.0 10 17
r 1.16624 4 0 tcp 1040 ------- 1 1.0 0.0 7 14
+ 1.16624 0 4 ack 40 ------- 1 0.0 1.0 7 22
- 1.16624 0 4 ack 40 ------- 1 0.0 1.0 7 22
- 1.16704 1 4 tcp 1040 ------- 1 1.0 0.0 14 21
r 1.16872 1 4 tcp 1040 ------- 1 1.0 0.0 11 18
+ 1.16872 4 0 tcp 1040 ------- 1 1.0 0.0 11 18
- 1.16872 4 0 tcp 1040 ------- 1 1.0 0.0 11 18
r 1.1704 4 0 tcp 1040 ------- 1 1.0 0.0 8 15
+ 1.1704 0 4 ack 40 ------- 1 0.0 1.0 8 23
- 1.1704 0 4 ack 40 ------- 1 0.0 1.0 8 23
r 1.17288 1 4 tcp 1040 ------- 1 1.0 0.0 12 19
+ 1.17288 4 0 tcp 1040 ------- 1 1.0 0.0 12 19
- 1.17288 4 0 tcp 1040 ------- 1 1.0 0.0 12 19
r 1.17456 4 0 tcp 1040 ------- 1 1.0 0.0 9 16
+ 1.17456 0 4 ack 40 ------- 1 0.0 1.0 9 24
- 1.17456 0 4 ack 40 ------- 1 0.0 1.0 9 24
r 1.1764 0 4 ack 40 ------- 1 0.0 1.0 7 22
+ 1.1764 4 1 ack 40 ------- 1 0.0 1.0 7 22
- 1.1764 4 1 ack 40 ------- 1 0.0 1.0 7 22
r 1.17704 1 4 tcp 1040 ------- 1 1.0 0.0 13 20
+ 1.17704 4 0 tcp 1040 ------- 1 1.0 0.0 13 20
- 1.17704 4 0 tcp 1040 ------- 1 1.0 0.0 13 20
r 1.17872 4 0 tcp 1040 ------- 1 1.0 0.0 10 17
+ 1.17872 0 4 ack 40 ------- 1 0.0 1.0 10 25
- 1.17872 0 4 ack 40 ------- 1 0.0 1.0 10 25
r 1.18056 0 4 ack 40 ------- 1 0.0 1.0 8 23
+ 1.18056 4 1 ack 40 ------- 1 0.0 1.0 8 23
- 1.18056 4 1 ack 40 ------- 1 0.0 1.0 8 23
r 1.1812 1 4 tcp 1040 ------- 1 1.0 0.0 14 21
+ 1.1812 4 0 tcp 1040 ------- 1 1.0 0.0 14 21
- 1.1812 4 0 tcp 1040 ------- 1 1.0 0.0 14 21
r 1.18288 4 0 tcp 1040 ------- 1 1.0 0.0 11 18
+ 1.18288 0 4 ack 40 ------- 1 0.0 1.0 11 26
- 1.18288 0 4 ack 40 ------- 1 0.0 1.0 11 26
r 1.18472 0 4 ack 40 ------- 1 0.0 1.0 9 24
+ 1.18472 4 1 ack 40 ------- 1 0.0 1.0 9 24
- 1.18472 4 1 ack 40 ------- 1 0.0 1.0 9 24
r 1.18656 4 1 ack 40 ------- 1 0.0 1.0 7 22
+ 1.18656 1 4 tcp 1040 ------- 1 1.0 0.0 15 27
- 1.18656 1 4 tcp 1040 ------- 1 1.0 0.0 15 27
+ 1.18656 1 4 tcp 1040 ------- 1 1.0 0.0 16 28
r 1.18704 4 0 tcp 1040 ------- 1 1.0 0.0 12 19
+ 1.18704 0 4 ack 40 ------- 1 0.0 1.0 12 29
- 1.18704 0 4 ack 40 ------- 1 0.0 1.0 12 29
r 1.18888 0 4 ack 40 ------- 1 0.0 1.0 10 25
+ 1.18888 4 1 ack 40 ------- 1 0.0 1.0 10 25
- 1.18888 4 1 ack 40 ------- 1 0.0 1.0 10 25
r 1.19072 4 1 ack 40 ------- 1 0.0 1.0 8 23
+ 1.19072 1 4 tcp 1040 ------- 1 1.0 0.0 17 30
+ 1.19072 1 4 tcp 1040 ------- 1 1.0 0.0 18 31
- 1.19072 1 4 tcp 1040 ------- 1 1.0 0.0 16 28
r 1.1912 4 0 tcp 1040 ------- 1 1.0 0.0 13 20
+ 1.1912 0 4 ack 40 ------- 1 0.0 1.0 13 32
- 1.1912 0 4 ack 40 ------- 1 0.0 1.0 13 32
r 1.19304 0 4 ack 40 ------- 1 0.0 1.0 11 26
+ 1.19304 4 1 ack 40 ------- 1 0.0 1.0 11 26
- 1.19304 4 1 ack 40 ------- 1 0.0 1.0 11 26
r 1.19488 4 1 ack 40 ------- 1 0.0 1.0 9 24
+ 1.19488 1 4 tcp 1040 ------- 1 1.0 0.0 19 33
+ 1.19488 1 4 tcp 1040 ------- 1 1.0 0.0 20 34
- 1.19488 1 4 tcp 1040 ------- 1 1.0 0.0 17 30
r 1.19536 4 0 tcp 1040 ------- 1 1.0 0.0 14 21
+ 1.19536 0 4 ack 40 ------- 1 0.0 1.0 14 35
- 1.19536 0 4 ack 40 ------- 1 0.0 1.0 14 35
r 1.1972 0 4 ack 40 ------- 1 0.0 1.0 12 29
+ 1.1972 4 1 ack 40 ------- 1 0.0 1.0 12 29
- 1.1972 4 1 ack 40 ------- 1 0.0 1.0 12 29
r 1.19904 4 1 ack 40 ------- 1 0.0 1.0 10 25
+ 1.19904 1 4 tcp 1040 ------- 1 1.0 0.0 21 36
+ 1.19904 1 4 tcp 1040 ------- 1 1.0 0.0 22 37
- 1.19904 1 4 tcp 1040 ------- 1 1.0 0.0 18 31
r 1.20072 1 4 tcp 1040 ------- 1 1.0 0.0 15 27
+ 1.20072 4 0 tcp 1040 ------- 1 1.0 0.0 15 27
- 1.20072 4 0 tcp 1040 ------- 1 1.0 0.0 15 27
r 1.20136 0 4 ack 40 ------- 1 0.0 1.0 13 32
+ 1.20136 4 1 ack 40 ------- 1 0.0 1.0 13 32
- 1.20136 4 1 ack 40 ------- 1 0.0 1.0 13 32
r 1.2032 4 1 ack 40 ------- 1 0.0 1.0 11 26
+ 1.2032 1 4 tcp 1040 ------- 1 1.0 0.0 23 38
+ 1.2032 1 4 tcp 1040 ------- 1 1.0 0.0 24 39
- 1.2032 1 4 tcp 1040 ------- 1 1.0 0.0 19 33
r 1.20488 1 4 tcp 1040 ------- 1 1.0 0.0 16 28
+ 1.20488 4 0 tcp 1040 ------- 1 1.0 0.0 16 28
- 1.20488 4 0 tcp 1040 ------- 1 1.0 0.0 16 28
r 1.20552 0 4 ack 40 ------- 1 0.0 1.0 14 35
+ 1.20552 4 1 ack 40 ------- 1 0.0 1.0 14 35
- 1.20552 4 1 ack 40 ------- 1 0.0 1.0 14 35
r 1.20736 4 1 ack 40 ------- 1 0.0 1.0 12 29
+ 1.20736 1 4 tcp 1040 ------- 1 1.0 0.0 25 40
+ 1.20736 1 4 tcp 1040 ------- 1 1.0 0.0 26 41
- 1.20736 1 4 tcp 1040 ------- 1 1.0 0.0 20 34
r 1.20904 1 4 tcp 1040 ------- 1 1.0 0.0 17 30
+ 1.20904 4 0 tcp 1040 ------- 1 1.0 0.0 17 30
- 1.20904 4 0 tcp 1040 ------- 1 1.0 0.0 17 30
r 1.21152 4 1 ack 40 ------- 1 0.0 1.0 13 32
+ 1.21152 1 4 tcp 1040 ------- 1 1.0 0.0 27 42
+ 1.21152 1 4 tcp 1040 ------- 1 1.0 0.0 28 43
- 1.21152 1 4 tcp 1040 ------- 1 1.0 0.0 21 36
r 1.2132 1 4 tcp 1040 ------- 1 1.0 0.0 18 31
+ 1.2132 4 0 tcp 1040 ------- 1 1.0 0.0 18 31
- 1.2132 4 0 tcp 1040 ------- 1 1.0 0.0 18 31
r 1.21488 4 0 tcp 1040 ------- 1 1.0 0.0 15 27
+ 1.21488 0 4 ack 40 ------- 1 0.0 1.0 15 44
- 1.21488 0 4 ack 40 ------- 1 0.0 1.0 15 44
r 1.21568 4 1 ack 40 ------- 1 0.0 1.0 14 35
+ 1.21568 1 4 tcp 1040 ------- 1 1.0 0.0 29 45
+ 1.21568 1 4 tcp 1040 ------- 1 1.0 0.0 30 46
- 1.21568 1 4 tcp 1040 ------- 1 1.0 0.0 22 37
r 1.21736 1 4 tcp 1040 ------- 1 1.0 0.0 19 33
+ 1.21736 4 0 tcp 1040 ------- 1 1.0 0.0 19 33
- 1.21736 4 0 tcp 1040 ------- 1 1.0 0.0 19 33
r 1.21904 4 0 tcp 1040 ------- 1 1.0 0.0 16 28
+ 1.21904 0 4 ack 40 ------- 1 0.0 1.0 16 47
- 1.21904 0 4 ack 40 ------- 1 0.0 1.0 16 47
- 1.21984 1 4 tcp 1040 ------- 1 1.0 0.0 23 38
r 1.22152 1 4 tcp 1040 ------- 1 1.0 0.0 20 34
+ 1.22152 4 0 tcp 1040 ------- 1 1.0 0.0 20 34
- 1.22152 4 0 tcp 1040 ------- 1 1.0 0.0 20 34
r 1.2232 4 0 tcp 1040 ------- 1 1.0 0.0 17 30
+ 1.2232 0 4 ack 40 ------- 1 0.0 1.0 17 48
- 1.2232 0 4 ack 40 ------- 1 0.0 1.0 17 48
- 1.224 1 4 tcp 1040 ------- 1 1.0 0.0 24 39
r 1.22504 0 4 ack 40 ------- 1 0.0 1.0 15 44
+ 1.22504 4 1 ack 40 ------- 1 0.0 1.0 15 44
- 1.22504 4 1 ack 40 ------- 1 0.0 1.0 15 44
r 1.22568 1 4 tcp 1040 ------- 1 1.0 0.0 21 36
+ 1.22568 4 0 tcp 1040 ------- 1 1.0 0.0 21 36
- 1.22568 4 0 tcp 1040 ------- 1 1.0 0.0 21 36
r 1.22736 4 0 tcp 1040 ------- 1 1.0 0.0 18 31
+ 1.22736 0 4 ack 40 ------- 1 0.0 1.0 18 49
- 1.22736 0 4 ack 40 ------- 1 0.0 1.0 18 49
- 1.22816 1 4 tcp 1040 ------- 1 1.0 0.0 25 40
r 1.2292 0 4 ack 40 ------- 1 0.0 1.0 16 47
+ 1.2292 4 1 ack 40 ------- 1 0.0 1.0 16 47
- 1.2292 4 1 ack 40 ------- 1 0.0 1.0 16 47
r 1.22984 1 4 tcp 1040 ------- 1 1.0 0.0 22 37
+ 1.22984 4 0 tcp 1040 ------- 1 1.0 0.0 22 37
- 1.22984 4 0 tcp 1040 ------- 1 1.0 0.0 22 37
r 1.23152 4 0 tcp 1040 ------- 1 1.0 0.0 19 33
+ 1.23152 0 4 ack 40 ------- 1 0.0 1.0 19 50
- 1.23152 0 4 ack 40 ------- 1 0.0 1.0 19 50
- 1.23232 1 4 tcp 1040 ------- 1 1.0 0.0 26 41
r 1.23336 0 4 ack 40 ------- 1 0.0 1.0 17 48
+ 1.23336 4 1 ack 40 ------- 1 0.0 1.0 17 48
- 1.23336 4 1 ack 40 ------- 1 0.0 1.0 17 48
r 1.234 1 4 tcp 1040 ------- 1 1.0 0.0 23 38
+ 1.234 4 0 tcp 1040 ------- 1 1.0 0.0 23 38
- 1.234 4 0 tcp 1040 ------- 1 1.0 0.0 23 38
r 1.2352 4 1 ack 40 ------- 1 0.0 1.0 15 44
+ 1.2352 1 4 tcp 1040 ------- 1 1.0 0.0 31 51
+ 1.2352 1 4 tcp 1040 ------- 1 1.0 0.0 32 52
r 1.23568 4 0 tcp 1040 ------- 1 1.0 0.0 20 34
+ 1.23568 0 4 ack 40 ------- 1 0.0 1.0 20 53
- 1.23568 0 4 ack 40 ------- 1 0.0 1.0 20 53
- 1.23648 1 4 tcp 1040 ------- 1 1.0 0.0 27 42
r 1.23752 0 4 ack 40 ------- 1 0.0 1.0 18 49
+ 1.23752 4 1 ack 40 ------- 1 0.0 1.0 18 49
- 1.23752 4 1 ack 40 ------- 1 0.0 1.0 18 49
r 1.23816 1 4 tcp 1040 ------- 1 1.0 0.0 24 39
+ 1.23816 4 0 tcp 1040 ------- 1 1.0 0.0 24 39
- 1.23816 4 0 tcp 1040 ------- 1 1.0 0.0 24 39
r 1.23936 4 1 ack 40 ------- 1 0.0 1.0 16 47
+ 1.23936 1 4 tcp 1040 ------- 1 1.0 0.0 33 54
+ 1.23936 1 4 tcp 1040 ------- 1 1.0 0.0 34 55
r 1.23984 4 0 tcp 1040 ------- 1 1.0 0.0 21 36
+ 1.23984 0 4 ack 40 ------- 1 0.0 1.0 21 56
- 1.23984 0 4 ack 40 ------- 1 0.0 1.0 21 56
- 1.24064 1 4 tcp 1040 ------- 1 1.0 0.0 28 43
r 1.24168 0 4 ack 40 ------- 1 0.0 1.0 19 50
+ 1.24168 4 1 ack 40 ------- 1 0.0 1.0 19 50
- 1.24168 4 1 ack 40 ------- 1 0.0 1.0 19 50
r 1.24232 1 4 tcp 1040 ------- 1 1.0 0.0 25 40
+ 1.24232 4 0 tcp 1040 ------- 1 1.0 0.0 25 40
- 1.24232 4 0 tcp 1040 ------- 1 1.0 0.0 25 40
r 1.24352 4 1 ack 40 ------- 1 0.0 1.0 17 48
+ 1.24352 1 4 tcp 1040 ------- 1 1.0 0.0 35 57
+ 1.24352 1 4 tcp 1040 ------- 1 1.0 0.0 36 58
r 1.244 4 0 tcp 1040 ------- 1 1.0 0.0 22 37
+ 1.244 0 4 ack 40 ------- 1 0.0 1.0 22 59
- 1.244 0 4 ack 40 ------- 1 0.0 1.0 22 59
- 1.2448 1 4 tcp 1040 ------- 1 1.0 0.0 29 45
r 1.24584 0 4 ack 40 ------- 1 0.0 1.0 20 53
+ 1.24584 4 1 ack 40 ------- 1 0.0 1.0 20 53
- 1.24584 4 1 ack 40 ------- 1 0.0 1.0 20 53
r 1.24648 1 4 tcp 1040 ------- 1 1.0 0.0 26 41
+ 1.24648 4 0 tcp 1040 ------- 1 1.0 0.0 26 41
- 1.24648 4 0 tcp 1040 ------- 1 1.0 0.0 26 41
r 1.24768 4 1 ack 40 ------- 1 0.0 1.0 18 49
+ 1.24768 1 4 tcp 1040 ------- 1 1.0 0.0 37 60
+ 1.24768 1 4 tcp 1040 ------- 1 1.0 0.0 38 61
r 1.24816 4 0 tcp 1040 ------- 1 1.0 0.0 23 38
+ 1.24816 0 4 ack 40 ------- 1 0.0 1.0 23 62
- 1.24816 0 4 ack 40 ------- 1 0.0 1.0 23 62
- 1.24896 1 4 tcp 1040 ------- 1 1.0 0.0 30 46
r 1.25 0 4 ack 40 ------- 1 0.0 1.0 21 56
+ 1.25 4 1 ack 40 ------- 1 0.0 1.0 21 56
- 1.25 4 1 ack 40 ------- 1 0.0 1.0 21 56
r 1.25064 1 4 tcp 1040 ------- 1 1.0 0.0 27 42
+ 1.25064 4 0 tcp 1040 ------- 1 1.0 0.0 27 42
- 1.25064 4 0 tcp 1040 ------- 1 1.0 0.0 27 42
r 1.25184 4 1 ack 40 ------- 1 0.0 1.0 19 50
+ 1.25184 1 4 tcp 1040 ------- 1 1.0 0.0 39 63
r 1.25232 4 0 tcp 1040 ------- 1 1.0 0.0 24 39
+ 1.25232 0 4 ack 40 ------- 1 0.0 1.0 24 64
- 1.25232 0 4 ack 40 ------- 1 0.0 1.0 24 64
- 1.25312 1 4 tcp 1040 ------- 1 1.0 0.0 31 51
r 1.25416 0 4 ack 40 ------- 1 0.0 1.0 22 59
+ 1.25416 4 1 ack 40 ------- 1 0.0 1.0 22 59
- 1.25416 4 1 ack 40 ------- 1 0.0 1.0 22 59
r 1.2548 1 4 tcp 1040 ------- 1 1.0 0.0 28 43
+ 1.2548 4 0 tcp 1040 ------- 1 1.0 0.0 28 43
- 1.2548 4 0 tcp 1040 ------- 1 1.0 0.0 28 43
r 1.256 4 1 ack 40 ------- 1 0.0 1.0 20 53
+ 1.256 1 4 tcp 1040 ------- 1 1.0 0.0 40 65
r 1.25648 4 0 tcp 1040 ------- 1 1.0 0.0 25 40
+ 1.25648 0 4 ack 40 ------- 1 0.0 1.0 25 66
- 1.25648 0 4 ack 40 ------- 1 0.0 1.0 25 66
- 1.25728 1 4 tcp 1040 ------- 1 1.0 0.0 32 52
r 1.25832 0 4 ack 40 ------- 1 0.0 1.0 23 62
+ 1.25832 4 1 ack 40 ------- 1 0.0 1.0 23 62
- 1.25832 4 1 ack 40 ------- 1 0.0 1.0 23 62
r 1.25896 1 4 tcp 1040 ------- 1 1.0 0.0 29 45
+ 1.25896 4 0 tcp 1040 ------- 1 1.0 0.0 29 45
- 1.25896 4 0 tcp 1040 ------- 1 1.0 0.0 29 45
r 1.26016 4 1 ack 40 ------- 1 0.0 1.0 21 56
+ 1.26016 1 4 tcp 1040 ------- 1 1.0 0.0 41 67
r 1.26064 4 0 tcp 1040 ------- 1 1.0 0.0 26 41
+ 1.26064 0 4 ack 40 ------- 1 0.0 1.0 26 68
- 1.26064 0 4 ack 40 ------- 1 0.0 1.0 26 68
- 1.26144 1 4 tcp 1040 ------- 1 1.0 0.0 33 54
r 1.26248 0 4 ack 40 ------- 1 0.0 1.0 24 64
+ 1.26248 4 1 ack 40 ------- 1 0.0 1.0 24 64
- 1.26248 4 1 ack 40 ------- 1 0.0 1.0 24 64
r 1.26312 1 4 tcp 1040 ------- 1 1.0 0.0 30 46
+ 1.26312 4 0 tcp 1040 ------- 1 1.0 0.0 30 46
- 1.26312 4 0 tcp 1040 ------- 1 1.0 0.0 30 46
r 1.26432 4 1 ack 40 ------- 1 0.0 1.0 22 59
+ 1.26432 1 4 tcp 1040 ------- 1 1.0 0.0 42 69
r 1.2648 4 0 tcp 1040 ------- 1 1.0 0.0 27 42
+ 1.2648 0 4 ack 40 ------- 1 0.0 1.0 27 70
- 1.2648 0 4 ack 40 ------- 1 0.0 1.0 27 70
- 1.2656 1 4 tcp 1040 ------- 1 1.0 0.0 34 55
r 1.26664 0 4 ack 40 ------- 1 0.0 1.0 25 66
+ 1.26664 4 1 ack 40 ------- 1 0.0 1.0 25 66
- 1.26664 4 1 ack 40 ------- 1 0.0 1.0 25 66
r 1.26728 1 4 tcp 1040 ------- 1 1.0 0.0 31 51
+ 1.26728 4 0 tcp 1040 ------- 1 1.0 0.0 31 51
- 1.26728 4 0 tcp 1040 ------- 1 1.0 0.0 31 51
r 1.26848 4 1 ack 40 ------- 1 0.0 1.0 23 62
+ 1.26848 1 4 tcp 1040 ------- 1 1.0 0.0 43 71
r 1.26896 4 0 tcp 1040 ------- 1 1.0 0.0 28 43
+ 1.26896 0 4 ack 40 ------- 1 0.0 1.0 28 72
- 1.26896 0 4 ack 40 ------- 1 0.0 1.0 28 72
- 1.26976 1 4 tcp 1040 ------- 1 1.0 0.0 35 57
r 1.2708 0 4 ack 40 ------- 1 0.0 1.0 26 68
+ 1.2708 4 1 ack 40 ------- 1 0.0 1.0 26 68
- 1.2708 4 1 ack 40 ------- 1 0.0 1.0 26 68
r 1.27144 1 4 tcp 1040 ------- 1 1.0 0.0 32 52
+ 1.27144 4 0 tcp 1040 ------- 1 1.0 0.0 32 52
- 1.27144 4 0 tcp 1040 ------- 1 1.0 0.0 32 52
r 1.27264 4 1 ack 40 ------- 1 0.0 1.0 24 64
+ 1.27264 1 4 tcp 1040 ------- 1 1.0 0.0 44 73
r 1.27312 4 0 tcp 1040 ------- 1 1.0 0.0 29 45
+ 1.27312 0 4 ack 40 ------- 1 0.0 1.0 29 74
- 1.27312 0 4 ack 40 ------- 1 0.0 1.0 29 74
- 1.27392 1 4 tcp 1040 ------- 1 1.0 0.0 36 58
r 1.27496 0 4 ack 40 ------- 1 0.0 1.0 27 70
+ 1.27496 4 1 ack 40 ------- 1 0.0 1.0 27 70
- 1.27496 4 1 ack 40 ------- 1 0.0 1.0 27 70
r 1.2756 1 4 tcp 1040 ------- 1 1.0 0.0 33 54
+ 1.2756 4 0 tcp 1040 ------- 1 1.0 0.0 33 54
- 1.2756 4 0 tcp 1040 ------- 1 1.0 0.0 33 54
r 1.2768 4 1 ack 40 ------- 1 0.0 1.0 25 66
+ 1.2768 1 4 tcp 1040 ------- 1 1.0 0.0 45 75
r 1.27728 4 0 tcp 1040 ------- 1 1.0 0.0 30 46
+ 1.27728 0 4 ack 40 ------- 1 0.0 1.0 30 76
- 1.27728 0 4 ack 40 ------- 1 0.0 1.0 30 76
- 1.27808 1 4 tcp 1040 ------- 1 1.0 0.0 37 60
r 1.27912 0 4 ack 40 ------- 1 0.0 1.0 28 72
+ 1.27912 4 1 ack 40 ------- 1 0.0 1.0 28 72
- 1.27912 4 1 ack 40 ------- 1 0.0 1.0 28 72
r 1.27976 1 4 tcp 1040 ------- 1 1.0 0.0 34 55
+ 1.27976 4 0 tcp 1040 ------- 1 1.0 0.0 34 55
- 1.27976 4 0 tcp 1040 ------- 1 1.0 0.0 34 55
r 1.28096 4 1 ack 40 ------- 1 0.0 1.0 26 68
+ 1.28096 1 4 tcp 1040 ------- 1 1.0 0.0 46 77
r 1.28144 4 0 tcp 1040 ------- 1 1.0 0.0 31 51
+ 1.28144 0 4 ack 40 ------- 1 0.0 1.0 31 78
- 1.28144 0 4 ack 40 ------- 1 0.0 1.0 31 78
- 1.28224 1 4 tcp 1040 ------- 1 1.0 0.0 38 61
r 1.28328 0 4 ack 40 ------- 1 0.0 1.0 29 74
+ 1.28328 4 1 ack 40 ------- 1 0.0 1.0 29 74
- 1.28328 4 1 ack 40 ------- 1 0.0 1.0 29 74
r 1.28392 1 4 tcp 1040 ------- 1 1.0 0.0 35 57
+ 1.28392 4 0 tcp 1040 ------- 1 1.0 0.0 35 57
- 1.28392 4 0 tcp 1040 ------- 1 1.0 0.0 35 57
r 1.28512 4 1 ack 40 ------- 1 0.0 1.0 27 70
+ 1.28512 1 4 tcp 1040 ------- 1 1.0 0.0 47 79
r 1.2856 4 0 tcp 1040 ------- 1 1.0 0.0 32 52
+ 1.2856 0 4 ack 40 ------- 1 0.0 1.0 32 80
- 1.2856 0 4 ack 40 ------- 1 0.0 1.0 32 80
- 1.2864 1 4 tcp 1040 ------- 1 1.0 0.0 39 63
r 1.28744 0 4 ack 40 ------- 1 0.0 1.0 30 76
+ 1.28744 4 1 ack 40 ------- 1 0.0 1.0 30 76
- 1.28744 4 1 ack 40 ------- 1 0.0 1.0 30 76
r 1.28808 1 4 tcp 1040 ------- 1 1.0 0.0 36 58
+ 1.28808 4 0 tcp 1040 ------- 1 1.0 0.0 36 58
- 1.28808 4 0 tcp 1040 ------- 1 1.0 0.0 36 58
r 1.28928 4 1 ack 40 ------- 1 0.0 1.0 28 72
+ 1.28928 1 4 tcp 1040 ------- 1 1.0 0.0 48 81
r 1.28976 4 0 tcp 1040 ------- 1 1.0 0.0 33 54
+ 1.28976 0 4 ack 40 ------- 1 0.0 1.0 33 82
- 1.28976 0 4 ack 40 ------- 1 0.0 1.0 33 82
- 1.29056 1 4 tcp 1040 ------- 1 1.0 0.0 40 65
r 1.2916 0 4 ack 40 ------- 1 0.0 1.0 31 78
+ 1.2916 4 1 ack 40 ------- 1 0.0 1.0 31 78
- 1.2916 4 1 ack 40 ------- 1 0.0 1.0 31 78
r 1.29224 1 4 tcp 1040 ------- 1 1.0 0.0 37 60
+ 1.29224 4 0 tcp 1040 ------- 1 1.0 0.0 37 60
- 1.29224 4 0 tcp 1040 ------- 1 1.0 0.0 37 60
r 1.29344 4 1 ack 40 ------- 1 0.0 1.0 29 74
+ 1.29344 1 4 tcp 1040 ------- 1 1.0 0.0 49 83
r 1.29392 4 0 tcp 1040 ------- 1 1.0 0.0 34 55
+ 1.29392 0 4 ack 40 ------- 1 0.0 1.0 34 84
- 1.29392 0 4 ack 40 ------- 1 0.0 1.0 34 84
- 1.29472 1 4 tcp 1040 ------- 1 1.0 0.0 41 67
r 1.29576 0 4 ack 40 ------- 1 0.0 1.0 32 80
+ 1.29576 4 1 ack 40 ------- 1 0.0 1.0 32 80
- 1.29576 4 1 ack 40 ------- 1 0.0 1.0 32 80
r 1.2964 1 4 tcp 1040 ------- 1 1.0 0.0 38 61
+ 1.2964 4 0 tcp 1040 ------- 1 1.0 0.0 38 61
- 1.2964 4 0 tcp 1040 ------- 1 1.0 0.0 38 61
r 1.2976 4 1 ack 40 ------- 1 0.0 1.0 30 76
+ 1.2976 1 4 tcp 1040 ------- 1 1.0 0.0 50 85
r 1.29808 4 0 tcp 1040 ------- 1 1.0 0.0 35 57
+ 1.29808 0 4 ack 40 ------- 1 0.0 1.0 35 86
- 1.29808 0 4 ack 40 ------- 1 0.0 1.0 35 86
- 1.29888 1 4 tcp 1040 ------- 1 1.0 0.0 42 69
r 1.29992 0 4 ack 40 ------- 1 0.0 1.0 33 82
+ 1.29992 4 1 ack 40 ------- 1 0.0 1.0 33 82
- 1.29992 4 1 ack 40 ------- 1 0.0 1.0 33 82
r 1.30056 1 4 tcp 1040 ------- 1 1.0 0.0 39 63
+ 1.30056 4 0 tcp 1040 ------- 1 1.0 0.0 39 63
- 1.30056 4 0 tcp 1040 ------- 1 1.0 0.0 39 63
r 1.30176 4 1 ack 40 ------- 1 0.0 1.0 31 78
+ 1.30176 1 4 tcp 1040 ------- 1 1.0 0.0 51 87
r 1.30224 4 0 tcp 1040 ------- 1 1.0 0.0 36 58
+ 1.30224 0 4 ack 40 ------- 1 0.0 1.0 36 88
- 1.30224 0 4 ack 40 ------- 1 0.0 1.0 36 88
- 1.30304 1 4 tcp 1040 ------- 1 1.0 0.0 43 71
r 1.30408 0 4 ack 40 ------- 1 0.0 1.0 34 84
+ 1.30408 4 1 ack 40 ------- 1 0.0 1.0 34 84
- 1.30408 4 1 ack 40 ------- 1 0.0 1.0 34 84
r 1.30472 1 4 tcp 1040 ------- 1 1.0 0.0 40 65
+ 1.30472 4 0 tcp 1040 ------- 1 1.0 0.0 40 65
- 1.30472 4 0 tcp 1040 ------- 1 1.0 0.0 40 65
r 1.30592 4 1 ack 40 ------- 1 0.0 1.0 32 80
+ 1.30592 1 4 tcp 1040 ------- 1 1.0 0.0 52 89
r 1.3064 4 0 tcp 1040 ------- 1 1.0 0.0 37 60
+ 1.3064 0 4 ack 40 ------- 1 0.0 1.0 37 90
- 1.3064 0 4 ack 40 ------- 1 0.0 1.0 37 90
- 1.3072 1 4 tcp 1040 ------- 1 1.0 0.0 44 73
r 1.30824 0 4 ack 40 ------- 1 0.0 1.0 35 86
+ 1.30824 4 1 ack 40 ------- 1 0.0 1.0 35 86
- 1.30824 4 1 ack 40 ------- 1 0.0 1.0 35 86
r 1.30888 1 4 tcp 1040 ------- 1 1.0 0.0 41 67
+ 1.30888 4 0 tcp 1040 ------- 1 1.0 0.0 41 67
- 1.30888 4 0 tcp 1040 ------- 1 1.0 0.0 41 67
r 1.31008 4 1 ack 40 ------- 1 0.0 1.0 33 82
+ 1.31008 1 4 tcp 1040 ------- 1 1.0 0.0 53 91
r 1.31056 4 0 tcp 1040 ------- 1 1.0 0.0 38 61
+ 1.31056 0 4 ack 40 ------- 1 0.0 1.0 38 92
- 1.31056 0 4 ack 40 ------- 1 0.0 1.0 38 92
- 1.31136 1 4 tcp 1040 ------- 1 1.0 0.0 45 75
r 1.3124 0 4 ack 40 ------- 1 0.0 1.0 36 88
+ 1.3124 4 1 ack 40 ------- 1 0.0 1.0 36 88
- 1.3124 4 1 ack 40 ------- 1 0.0 1.0 36 88
r 1.31304 1 4 tcp 1040 ------- 1 1.0 0.0 42 69
+ 1.31304 4 0 tcp 1040 ------- 1 1.0 0.0 42 69
- 1.31304 4 0 tcp 1040 ------- 1 1.0 0.0 42 69
r 1.31424 4 1 ack 40 ------- 1 0.0 1.0 34 84
+ 1.31424 1 4 tcp 1040 ------- 1 1.0 0.0 54 93
r 1.31472 4 0 tcp 1040 ------- 1 1.0 0.0 39 63
+ 1.31472 0 4 ack 40 ------- 1 0.0 1.0 39 94
- 1.31472 0 4 ack 40 ------- 1 0.0 1.0 39 94
- 1.31552 1 4 tcp 1040 ------- 1 1.0 0.0 46 77
r 1.31656 0 4 ack 40 ------- 1 0.0 1.0 37 90
+ 1.31656 4 1 ack 40 ------- 1 0.0 1.0 37 90
- 1.31656 4 1 ack 40 ------- 1 0.0 1.0 37 90
r 1.3172 1 4 tcp 1040 ------- 1 1.0 0.0 43 71
+ 1.3172 4 0 tcp 1040 ------- 1 1.0 0.0 43 71
- 1.3172 4 0 tcp 1040 ------- 1 1.0 0.0 43 71
r 1.3184 4 1 ack 40 ------- 1 0.0 1.0 35 86
+ 1.3184 1 4 tcp 1040 ------- 1 1.0 0.0 55 95
r 1.31888 4 0 tcp 1040 ------- 1 1.0 0.0 40 65
+ 1.31888 0 4 ack 40 ------- 1 0.0 1.0 40 96
- 1.31888 0 4 ack 40 ------- 1 0.0 1.0 40 96
- 1.31968 1 4 tcp 1040 ------- 1 1.0 0.0 47 79
r 1.32072 0 4 ack 40 ------- 1 0.0 1.0 38 92
+ 1.32072 4 1 ack 40 ------- 1 0.0 1.0 38 92
- 1.32072 4 1 ack 40 ------- 1 0.0 1.0 38 92
r 1.32136 1 4 tcp 1040 ------- 1 1.0 0.0 44 73
+ 1.32136 4 0 tcp 1040 ------- 1 1.0 0.0 44 73
- 1.32136 4 0 tcp 1040 ------- 1 1.0 0.0 44 73
r 1.32256 4 1 ack 40 ------- 1 0.0 1.0 36 88
+ 1.32256 1 4 tcp 1040 ------- 1 1.0 0.0 56 97
r 1.32304 4 0 tcp 1040 ------- 1 1.0 0.0 41 67
+ 1.32304 0 4 ack 40 ------- 1 0.0 1.0 41 98
- 1.32304 0 4 ack 40 ------- 1 0.0 1.0 41 98
- 1.32384 1 4 tcp 1040 ------- 1 1.0 0.0 48 81
r 1.32488 0 4 ack 40 ------- 1 0.0 1.0 39 94
+ 1.32488 4 1 ack 40 ------- 1 0.0 1.0 39 94
- 1.32488 4 1 ack 40 ------- 1 0.0 1.0 39 94
r 1.32552 1 4 tcp 1040 ------- 1 1.0 0.0 45 75
+ 1.32552 4 0 tcp 1040 ------- 1 1.0 0.0 45 75
- 1.32552 4 0 tcp 1040 ------- 1 1.0 0.0 45 75
r 1.32672 4 1 ack 40 ------- 1 0.0 1.0 37 90
+ 1.32672 1 4 tcp 1040 ------- 1 1.0 0.0 57 99
r 1.3272 4 0 tcp 1040 ------- 1 1.0 0.0 42 69
+ 1.3272 0 4 ack 40 ------- 1 0.0 1.0 42 100
- 1.3272 0 4 ack 40 ------- 1 0.0 1.0 42 100
- 1.328 1 4 tcp 1040 ------- 1 1.0 0.0 49 83
r 1.32904 0 4 ack 40 ------- 1 0.0 1.0 40 96
+ 1.32904 4 1 ack 40 ------- 1 0.0 1.0 40 96
- 1.32904 4 1 ack 40 ------- 1 0.0 1.0 40 96
r 1.32968 1 4 tcp 1040 ------- 1 1.0 0.0 46 77
+ 1.32968 4 0 tcp 1040 ------- 1 1.0 0.0 46 77
- 1.32968 4 0 tcp 1040 ------- 1 1.0 0.0 46 77
r 1.33088 4 1 ack 40 ------- 1 0.0 1.0 38 92
+ 1.33088 1 4 tcp 1040 ------- 1 1.0 0.0 58 101
r 1.33136 4 0 tcp 1040 ------- 1 1.0 0.0 43 71
+ 1.33136 0 4 ack 40 ------- 1 0.0 1.0 43 102
- 1.33136 0 4 ack 40 ------- 1 0.0 1.0 43 102
- 1.33216 1 4 tcp 1040 ------- 1 1.0 0.0 50 85
r 1.3332 0 4 ack 40 ------- 1 0.0 1.0 41 98
+ 1.3332 4 1 ack 40 ------- 1 0.0 1.0 41 98
- 1.3332 4 1 ack 40 ------- 1 0.0 1.0 41 98
r 1.33384 1 4 tcp 1040 ------- 1 1.0 0.0 47 79
+ 1.33384 4 0 tcp 1040 ------- 1 1.0 0.0 47 79
- 1.33384 4 0 tcp 1040 ------- 1 1.0 0.0 47 79
r 1.33504 4 1 ack 40 ------- 1 0.0 1.0 39 94
+ 1.33504 1 4 tcp 1040 ------- 1 1.0 0.0 59 103
r 1.33552 4 0 tcp 1040 ------- 1 1.0 0.0 44 73
+ 1.33552 0 4 ack 40 ------- 1 0.0 1.0 44 104
- 1.33552 0 4 ack 40 ------- 1 0.0 1.0 44 104
- 1.33632 1 4 tcp 1040 ------- 1 1.0 0.0 51 87
r 1.33736 0 4 ack 40 ------- 1 0.0 1.0 42 100
+ 1.33736 4 1 ack 40 ------- 1 0.0 1.0 42 100
- 1.33736 4 1 ack 40 ------- 1 0.0 1.0 42 100
r 1.338 1 4 tcp 1040 ------- 1 1.0 0.0 48 81
+ 1.338 4 0 tcp 1040 ------- 1 1.0 0.0 48 81
- 1.338 4 0 tcp 1040 ------- 1 1.0 0.0 48 81
r 1.3392 4 1 ack 40 ------- 1 0.0 1.0 40 96
+ 1.3392 1 4 tcp 1040 ------- 1 1.0 0.0 60 105
r 1.33968 4 0 tcp 1040 ------- 1 1.0 0.0 45 75
+ 1.33968 0 4 ack 40 ------- 1 0.0 1.0 45 106
- 1.33968 0 4 ack 40 ------- 1 0.0 1.0 45 106
- 1.34048 1 4 tcp 1040 ------- 1 1.0 0.0 52 89
r 1.34152 0 4 ack 40 ------- 1 0.0 1.0 43 102
+ 1.34152 4 1 ack 40 ------- 1 0.0 1.0 43 102
- 1.34152 4 1 ack 40 ------- 1 0.0 1.0 43 102
r 1.34216 1 4 tcp 1040 ------- 1 1.0 0.0 49 83
+ 1.34216 4 0 tcp 1040 ------- 1 1.0 0.0 49 83
- 1.34216 4 0 tcp 1040 ------- 1 1.0 0.0 49 83
r 1.34336 4 1 ack 40 ------- 1 0.0 1.0 41 98
+ 1.34336 1 4 tcp 1040 ------- 1 1.0 0.0 61 107
r 1.34384 4 0 tcp 1040 ------- 1 1.0 0.0 46 77
+ 1.34384 0 4 ack 40 ------- 1 0.0 1.0 46 108
- 1.34384 0 4 ack 40 ------- 1 0.0 1.0 46 108
- 1.34464 1 4 tcp 1040 ------- 1 1.0 0.0 53 91
r 1.34568 0 4 ack 40 ------- 1 0.0 1.0 44 104
+ 1.34568 4 1 ack 40 ------- 1 0.0 1.0 44 104
- 1.34568 4 1 ack 40 ------- 1 0.0 1.0 44 104
r 1.34632 1 4 tcp 1040 ------- 1 1.0 0.0 50 85
+ 1.34632 4 0 tcp 1040 ------- 1 1.0 0.0 50 85
- 1.34632 4 0 tcp 1040 ------- 1 1.0 0.0 50 85
r 1.34752 4 1 ack 40 ------- 1 0.0 1.0 42 100
+ 1.34752 1 4 tcp 1040 ------- 1 1.0 0.0 62 109
r 1.348 4 0 tcp 1040 ------- 1 1.0 0.0 47 79
+ 1.348 0 4 ack 40 ------- 1 0.0 1.0 47 110
- 1.348 0 4 ack 40 ------- 1 0.0 1.0 47 110
- 1.3488 1 4 tcp 1040 ------- 1 1.0 0.0 54 93
r 1.34984 0 4 ack 40 ------- 1 0.0 1.0 45 106
+ 1.34984 4 1 ack 40 ------- 1 0.0 1.0 45 106
- 1.34984 4 1 ack 40 ------- 1 0.0 1.0 45 106
r 1.35048 1 4 tcp 1040 ------- 1 1.0 0.0 51 87
+ 1.35048 4 0 tcp 1040 ------- 1 1.0 0.0 51 87
- 1.35048 4 0 tcp 1040 ------- 1 1.0 0.0 51 87
r 1.35168 4 1 ack 40 ------- 1 0.0 1.0 43 102
+ 1.35168 1 4 tcp 1040 ------- 1 1.0 0.0 63 111
r 1.35216 4 0 tcp 1040 ------- 1 1.0 0.0 48 81
+ 1.35216 0 4 ack 40 ------- 1 0.0 1.0 48 112
- 1.35216 0 4 ack 40 ------- 1 0.0 1.0 48 112
- 1.35296 1 4 tcp 1040 ------- 1 1.0 0.0 55 95
r 1.354 0 4 ack 40 ------- 1 0.0 1.0 46 108
+ 1.354 4 1 ack 40 ------- 1 0.0 1.0 46 108
- 1.354 4 1 ack 40 ------- 1 0.0 1.0 46 108
r 1.35464 1 4 tcp 1040 ------- 1 1.0 0.0 52 89
+ 1.35464 4 0 tcp 1040 ------- 1 1.0 0.0 52 89
- 1.35464 4 0 tcp 1040 ------- 1 1.0 0.0 52 89
r 1.35584 4 1 ack 40 ------- 1 0.0 1.0 44 104
+ 1.35584 1 4 tcp 1040 ------- 1 1.0 0.0 64 113
r 1.35632 4 0 tcp 1040 ------- 1 1.0 0.0 49 83
+ 1.35632 0 4 ack 40 ------- 1 0.0 1.0 49 114
- 1.35632 0 4 ack 40 ------- 1 0.0 1.0 49 114
- 1.35712 1 4 tcp 1040 ------- 1 1.0 0.0 56 97
r 1.35816 0 4 ack 40 ------- 1 0.0 1.0 47 110
+ 1.35816 4 1 ack 40 ------- 1 0.0 1.0 47 110
- 1.35816 4 1 ack 40 ------- 1 0.0 1.0 47 110
r 1.3588 1 4 tcp 1040 ------- 1 1.0 0.0 53 91
+ 1.3588 4 0 tcp 1040 ------- 1 1.0 0.0 53 91
- 1.3588 4 0 tcp 1040 ------- 1 1.0 0.0 53 91
r 1.36 4 1 ack 40 ------- 1 0.0 1.0 45 106
+ 1.36 1 4 tcp 1040 ------- 1 1.0 0.0 65 115
r 1.36048 4 0 tcp 1040 ------- 1 1.0 0.0 50 85
+ 1.36048 0 4 ack 40 ------- 1 0.0 1.0 50 116
- 1.36048 0 4 ack 40 ------- 1 0.0 1.0 50 116
- 1.36128 1 4 tcp 1040 ------- 1 1.0 0.0 57 99
r 1.36232 0 4 ack 40 ------- 1 0.0 1.0 48 112
+ 1.36232 4 1 ack 40 ------- 1 0.0 1.0 48 112
- 1.36232 4 1 ack 40 ------- 1 0.0 1.0 48 112
r 1.36296 1 4 tcp 1040 ------- 1 1.0 0.0 54 93
+ 1.36296 4 0 tcp 1040 ------- 1 1.0 0.0 54 93
- 1.36296 4 0 tcp 1040 ------- 1 1.0 0.0 54 93
r 1.36416 4 1 ack 40 ------- 1 0.0 1.0 46 108
+ 1.36416 1 4 tcp 1040 ------- 1 1.0 0.0 66 117
r 1.36464 4 0 tcp 1040 ------- 1 1.0 0.0 51 87
+ 1.36464 0 4 ack 40 ------- 1 0.0 1.0 51 118
- 1.36464 0 4 ack 40 ------- 1 0.0 1.0 51 118
- 1.36544 1 4 tcp 1040 ------- 1 1.0 0.0 58 101
r 1.36648 0 4 ack 40 ------- 1 0.0 1.0 49 114
+ 1.36648 4 1 ack 40 ------- 1 0.0 1.0 49 114
- 1.36648 4 1 ack 40 ------- 1 0.0 1.0 49 114
r 1.36712 1 4 tcp 1040 ------- 1 1.0 0.0 55 95
+ 1.36712 4 0 tcp 1040 ------- 1 1.0 0.0 55 95
- 1.36712 4 0 tcp 1040 ------- 1 1.0 0.0 55 95
r 1.36832 4 1 ack 40 ------- 1 0.0 1.0 47 110
+ 1.36832 1 4 tcp 1040 ------- 1 1.0 0.0 67 119
r 1.3688 4 0 tcp 1040 ------- 1 1.0 0.0 52 89
+ 1.3688 0 4 ack 40 ------- 1 0.0 1.0 52 120
- 1.3688 0 4 ack 40 ------- 1 0.0 1.0 52 120
- 1.3696 1 4 tcp 1040 ------- 1 1.0 0.0 59 103
r 1.37064 0 4 ack 40 ------- 1 0.0 1.0 50 116
+ 1.37064 4 1 ack 40 ------- 1 0.0 1.0 50 116
- 1.37064 4 1 ack 40 ------- 1 0.0 1.0 50 116
r 1.37128 1 4 tcp 1040 ------- 1 1.0 0.0 56 97